 Gaussian 09, Revision D.01,
 Gaussian 09:  ES64L-G09RevD.01 24-Apr-2013

 ----------------------------------------------------------------------
 #P b3lyp/gen opt freq scrf(smd,solvent=water) gfinput scf=(xqc,maxcon=
 128,maxcyc=128)
 ----------------------------------------------------------------------

 ------------------
 ferulic_acid_2.car
 ------------------
 Symbolic Z-matrix:
 Charge =  0 Multiplicity = 1

 SCF Done:  E(RB3LYP) =  -687.955577684     A.U. after   13 cycles
 SCF Done:  E(RB3LYP) =  -687.959547872     A.U. after   11 cycles
 SCF Done:  E(RB3LYP) =  -687.960995743     A.U. after   11 cycles
 SCF Done:  E(RB3LYP) =  -687.960996696     A.U. after   13 cycles
 SCF Done:  E(RB3LYP) =  -687.961981334     A.U. after   10 cycles
 SCF Done:  E(RB3LYP) =  -687.962060284     A.U. after   10 cycles
 SCF Done:  E(RB3LYP) =  -687.962070902     A.U. after    8 cycles
 SCF Done:  E(RB3LYP) =  -687.962072420     A.U. after    8 cycles
 SCF Done:  E(RB3LYP) =  -687.962072649     A.U. after    7 cycles
 Optimization completed.
    -- Stationary point found.
 Normal termination of Gaussian 09 at Fri Jul 29 15:08:54 2016.

 ------------------------------------------------------------------
 #P Geom=AllCheck Guess=TCheck SCRF=Check GenChk RB3LYP/ChkBas Freq
 ------------------------------------------------------------------

 Structure from the checkpoint file:  "1.chk"
 ------------------
 ferulic_acid_2.car
 ------------------
 Charge =  0 Multiplicity = 1

                         Standard orientation:
 ---------------------------------------------------------------------
 Center     Atomic      Atomic             Coordinates (Angstroms)
 Number     Number       Type             X           Y           Z
 ---------------------------------------------------------------------
      1          6           0        2.019120    0.403712   -0.004315
      2          8           0        2.870225    1.476166   -0.007140
      3          6           0        2.299157    2.786987    0.009924
      4          6           0        0.633491    0.458797   -0.003347
      5          6           0       -0.127347   -0.736638    0.000599
      6          6           0       -1.582474   -0.741415    0.001583
      7          6           0       -2.415569    0.325239   -0.001903
      8          6           0       -3.866216    0.132934   -0.000464
      9          8           0       -4.533939    1.318217   -0.003167
     10          6           0        0.546923   -1.970452    0.003623
     11          6           0        1.940830   -2.028666    0.002419
     12          6           0        2.681248   -0.849848   -0.001634
     13          8           0        4.044926   -0.901353   -0.002458
     14          8           0       -4.462940   -0.938205    0.002547
     15          1           0        1.694111    2.937717    0.912881
     16          1           0        1.683566    2.957264   -0.882364
     17          1           0        3.144093    3.479808    0.012069
     18          1           0        0.130144    1.420062   -0.005775
     19          1           0       -2.043432   -1.729725    0.005349
     20          1           0       -5.487287    1.121547   -0.002359
     21          1           0       -2.059450    1.351235   -0.005956
     22          1           0       -0.029695   -2.892648    0.007029
     23          1           0        2.467462   -2.979466    0.005148
     24          1           0        4.379328    0.011699   -0.003185
 ---------------------------------------------------------------------

 SCF Done:  E(RB3LYP) =  -687.962072649     A.U. after    1 cycles

 The electronic state is 1-A.
 Alpha  occ. eigenvalues --  -19.18291 -19.18168 -19.17620 -19.13140 -10.31526
 Alpha  occ. eigenvalues --  -10.25319 -10.24911 -10.22288 -10.20497 -10.19693
 Alpha  occ. eigenvalues --  -10.18928 -10.18820 -10.18600 -10.18488  -1.09562
 Alpha  occ. eigenvalues --   -1.08011  -1.05220  -1.00591  -0.86006  -0.80121
 Alpha  occ. eigenvalues --   -0.75686  -0.74408  -0.70149  -0.66391  -0.61169
 Alpha  occ. eigenvalues --   -0.60398  -0.55964  -0.54409  -0.52778  -0.49335
 Alpha  occ. eigenvalues --   -0.48847  -0.47625  -0.46761  -0.45348  -0.44219
 Alpha  occ. eigenvalues --   -0.44095  -0.42445  -0.41317  -0.40662  -0.39305
 Alpha  occ. eigenvalues --   -0.38723  -0.37052  -0.35797  -0.34668  -0.33970
 Alpha  occ. eigenvalues --   -0.33492  -0.31762  -0.28236  -0.27992  -0.24044
 Alpha  occ. eigenvalues --   -0.20851
 Alpha virt. eigenvalues --   -0.06243   0.00340   0.02992   0.08393   0.09818
 Alpha virt. eigenvalues --    0.10693   0.11074   0.12038   0.13997   0.15839
 Alpha virt. eigenvalues --    0.16388   0.17296   0.17888   0.18337   0.19396

 Mulliken charges:
               1
     1  C    0.275838
     2  O   -0.411562
     3  C   -0.331857
     4  C   -0.312430
     5  C    0.186113
     6  C   -0.171380
     7  C   -0.204575
     8  C    0.366347
     9  O   -0.525440
    10  C   -0.233261
    11  C   -0.188465
    12  C    0.218614
    13  O   -0.582361
    14  O   -0.445806
    15  H    0.193474
    16  H    0.193647
    17  H    0.204277
    18  H    0.192741
    19  H    0.176678
    20  H    0.432413
    21  H    0.184547
    22  H    0.171724
    23  H    0.171392
    24  H    0.439332
 Sum of Mulliken charges =   0.00000

 Dipole moment (field-independent basis, Debye):
    X=              2.9252    Y=              4.7000    Z=              0.0210  Tot=              5.5359
 Quadrupole moment (field-independent basis, Debye-Ang):
   XX=            -84.1821   YY=            -69.6929   ZZ=            -82.1593
   XY=             -0.0641   XZ=              0.0901   YZ=              0.0302

  Exact polarizability: 326.652 -24.490 195.756  -0.021  -0.259  62.173
 Approx polarizability: 346.866 -27.992 218.110  -0.090  -0.332  72.151

 ******    1 imaginary frequencies (negative Signs) ******

                      1                      2                      3
                      A                      A                      A
 Frequencies --    -43.8867                51.9696                67.6075
 Red. masses --      3.1234                 6.2866                 5.6468
 Frc consts  --      0.0035                 0.0100                 0.0152
 IR Inten    --      5.4301                 1.1986                 0.5953

                      4                      5                      6
                      A                      A                      A
 Frequencies --     70.5832               141.0858               176.2870
 Red. masses --      8.4036                 3.6253                 4.6220
 Frc consts  --      0.0247                 0.0425                 0.0846
 IR Inten    --      2.4610                 1.4715                 3.0676

                      7                      8                      9
                      A                      A                      A
 Frequencies --    181.7624               222.9862               235.8944
 Red. masses --      2.4104                 1.8173                 5.9353
 Frc consts  --      0.0469                 0.0532                 0.1946
 IR Inten    --      1.5107                 0.0099                 2.0961

                     10                     11                     12
                      A                      A                      A
 Frequencies --    278.3162               293.4200               354.6648
 Red. masses --      1.9861                 6.6712                 4.6132
 Frc consts  --      0.0906                 0.3384                 0.3419
 IR Inten    --      1.4088                10.0606                 2.3391

                     13                     14                     15
                      A                      A                      A
 Frequencies --    398.4785               453.7483               492.0558
 Red. masses --      3.9420                 2.9845                 1.0633
 Frc consts  --      0.3688                 0.3620                 0.1517
 IR Inten    --      0.5300                 0.0277               208.6784

                     16                     17                     18
                      A                      A                      A
 Frequencies --    498.4691               509.8224               561.0045
 Red. masses --      4.9023                 7.3213                 5.5501
 Frc consts  --      0.7177                 1.1212                 1.0292
 IR Inten    --     33.2430                43.2755               105.9384

                     19                     20                     21
                      A                      A                      A
 Frequencies --    569.5800               575.5653               621.9460
 Red. masses --      1.2941                 4.2339                 2.8362
 Frc consts  --      0.2474                 0.8264                 0.6464
 IR Inten    --    117.0721                37.6674                80.0195

                     22                     23                     24
                      A                      A                      A
 Frequencies --    643.3509               720.4423               754.8849
 Red. masses --      4.9928                 3.8729                 5.7427
 Frc consts  --      1.2176                 1.1844                 1.9281
 IR Inten    --     18.1389                 4.0785                30.6795

                     25                     26                     27
                      A                      A                      A
 Frequencies --    760.8597               813.6121               834.5343
 Red. masses --      4.1784                 5.7836                 1.5355
 Frc consts  --      1.4252                 2.2557                 0.6301
 IR Inten    --     15.2971                51.0058                49.1150

                     28                     29                     30
                      A                      A                      A
 Frequencies --    861.6135               878.7583               945.5573
 Red. masses --      1.5729                 2.0018                 1.2841
 Frc consts  --      0.6880                 0.9108                 0.6764
 IR Inten    --     72.0567                 3.5109                 1.6944

                     31                     32                     33
                      A                      A                      A
 Frequencies --    953.1287               986.2240              1022.9641
 Red. masses --      4.9998                 3.3818                 1.2070
 Frc consts  --      2.6761                 1.9380                 0.7442
 IR Inten    --     19.2646                 2.3894                30.7257

                     34                     35                     36
                      A                      A                      A
 Frequencies --   1049.1255              1096.0412              1144.2498
 Red. masses --      4.2524                 2.6767                 1.5826
 Frc consts  --      2.7577                 1.8945                 1.2209
 IR Inten    --    102.9067              1648.1554                35.4679

                     37                     38                     39
                      A                      A                      A
 Frequencies --   1177.5099              1181.3513              1208.1417
 Red. masses --      1.2673                 2.4906                 1.5201
 Frc consts  --      1.0353                 2.0479                 1.3073
 IR Inten    --      1.2652               113.5566               354.5116

                     40                     41                     42
                      A                      A                      A
 Frequencies --   1228.6388              1240.6201              1269.6805
 Red. masses --      1.4562                 1.8536                 1.5001
 Frc consts  --      1.2952                 1.6809                 1.4248
 IR Inten    --    239.4543                54.6851               155.6258

                     43                     44                     45
                      A                      A                      A
 Frequencies --   1293.0629              1320.7281              1348.2327
 Red. masses --      2.0554                 2.2888                 1.4673
 Frc consts  --      2.0248                 2.3523                 1.5714
 IR Inten    --    468.0895                86.8089                18.7992

                     46                     47                     48
                      A                      A                      A
 Frequencies --   1374.3603              1428.1957              1470.0060
 Red. masses --      2.1387                 3.0490                 2.0386
 Frc consts  --      2.3801                 3.6642                 2.5955
 IR Inten    --     74.5280               164.3443               221.7045

                     49                     50                     51
                      A                      A                      A
 Frequencies --   1490.3704              1494.6798              1500.9744
 Red. masses --      1.0549                 1.4677                 1.1751
 Frc consts  --      1.3806                 1.9319                 1.5599
 IR Inten    --     11.5514                 5.6879               154.5673

                     52                     53                     54
                      A                      A                      A
 Frequencies --   1539.9395              1635.5615              1644.9442
 Red. masses --      3.0410                 5.7251                 5.6593
 Frc consts  --      4.2488                 9.0233                 9.0223
 IR Inten    --    475.5111               962.9985                17.3664

                     55                     56                     57
                      A                      A                      A
 Frequencies --   1674.7764              1722.5185              3050.1991
 Red. masses --      6.2991                 7.6463                 1.0319
 Frc consts  --     10.4098                13.3669                 5.6565
 IR Inten    --    549.9390               432.2536                51.9076

                     58                     59                     60
                      A                      A                      A
 Frequencies --   3125.3644              3176.1250              3176.9246
 Red. masses --      1.1088                 1.1044                 1.0891
 Frc consts  --      6.3812                 6.5640                 6.4761
 IR Inten    --     41.7054                24.6477                 4.5955

                     61                     62                     63
                      A                      A                      A
 Frequencies --   3204.5905              3220.2803              3220.8946
 Red. masses --      1.0887                 1.0919                 1.0949
 Frc consts  --      6.5875                 6.6717                 6.6924
 IR Inten    --      9.4492                 4.0444                14.5736

                     64                     65                     66
                      A                      A                      A
 Frequencies --   3235.2719              3665.9613              3671.1013
 Red. masses --      1.0903                 1.0656                 1.0652
 Frc consts  --      6.7239                 8.4374                 8.4584
 IR Inten    --      3.7417               269.0381               170.6137

 - Thermochemistry -
 -------------------
 Temperature   298.150 Kelvin.  Pressure   1.00000 Atm.
 Atom     1 has atomic number  6 and mass  12.00000

 Molecular mass:   194.05791 amu.
 Principal axes and moments of inertia in atomic units:
                           1         2         3
     Eigenvalues --  1297.384495907.802967193.56077
           X            0.99998   0.00659   0.00007
           Y           -0.00659   0.99998   0.00014
           Z           -0.00007  -0.00014   1.00000
 This molecule is an asymmetric top.
 Rotational symmetry number  1.
 Warning -- assumption of classical behavior for rotation
           may cause significant error
 Rotational temperatures (Kelvin)      0.06676     0.01466     0.01204
 Rotational constants (GHZ):           1.39106     0.30548     0.25088
    1 imaginary frequencies ignored.
 Zero-point vibrational energy     485753.2 (Joules/Mol)
                                  116.09781 (Kcal/Mol)
 Warning -- explicit consideration of  19 degrees of freedom as
           vibrations may cause significant error
 Vibrational temperatures:     74.77    97.27   101.55   202.99   253.64
          (Kelvin)            261.52   320.83   339.40   400.43   422.17
                              510.28   573.32   652.84   707.96   717.18
                              733.52   807.16   819.50   828.11   894.84
                              925.64  1036.55  1086.11  1094.71  1170.60
                             1200.71  1239.67  1264.34  1360.44  1371.34
                             1418.95  1471.82  1509.46  1576.96  1646.32
                             1694.17  1699.70  1738.24  1767.74  1784.97
                             1826.78  1860.43  1900.23  1939.80  1977.40
                             2054.85  2115.01  2144.31  2150.51  2159.56
                             2215.63  2353.21  2366.70  2409.63  2478.32
                             4388.55  4496.70  4569.73  4570.88  4610.69
                             4633.26  4634.14  4654.83  5274.49  5281.89

 Zero-point correction=                           0.185014 (Hartree/Particle)
 Thermal correction to Energy=                    0.197410
 Thermal correction to Enthalpy=                  0.198354
 Thermal correction to Gibbs Free Energy=         0.145572
 Sum of electronic and zero-point Energies=           -687.777059
 Sum of electronic and thermal Energies=              -687.764663
 Sum of electronic and thermal Enthalpies=            -687.763719
 Sum of electronic and thermal Free Energies=         -687.816500

                     E (Thermal)             CV                S
                      KCal/Mol        Cal/Mol-Kelvin    Cal/Mol-Kelvin
 Total                  123.877             47.234            111.088
 Electronic               0.000              0.000              0.000
 Translational            0.889              2.981             41.694
 Rotational               0.889              2.981             32.378
 Vibrational            122.099             41.272             37.016
 Vibration     1          0.596              1.977              4.741
 Vibration     2          0.598              1.970              4.222
 Vibration     3          0.598              1.968              4.137
 Vibration     4          0.615              1.912              2.789
 Vibration     5          0.628              1.872              2.367
 Vibration     6          0.630              1.865              2.310
 Vibration     7          0.649              1.806              1.935
 Vibration     8          0.655              1.786              1.834
 Vibration     9          0.679              1.714              1.544
 Vibration    10          0.688              1.686              1.454
 Vibration    11          0.731              1.566              1.145
 Vibration    12          0.765              1.473              0.968
 Vibration    13          0.812              1.353              0.785
 Vibration    14          0.848              1.268              0.678
 Vibration    15          0.854              1.253              0.662
 Vibration    16          0.865              1.228              0.634
 Vibration    17          0.917              1.116              0.522
 Vibration    18          0.926              1.097              0.505
 Vibration    19          0.932              1.084              0.494

 Normal termination of Gaussian 09 at Fri Jul 29 15:11:37 2016.
