 Gaussian 09, Revision D.01,
 Gaussian 09:  ES64L-G09RevD.01 24-Apr-2013

 ----------------------------------------------------------------------
 #P b3lyp/gen opt freq scrf(smd,solvent=water) gfinput scf=(xqc,maxcon=
 128,maxcyc=128)
 ----------------------------------------------------------------------

 --------------------
 cyclohexane-boat.car
 --------------------
 Symbolic Z-matrix:
 Charge =  0 Multiplicity = 1

 SCF Done:  E(RB3LYP) =  -235.859100172     A.U. after   10 cycles
 SCF Done:  E(RB3LYP) =  -235.859529199     A.U. after    8 cycles
 SCF Done:  E(RB3LYP) =  -235.859869193     A.U. after    9 cycles
 SCF Done:  E(RB3LYP) =  -235.860161620     A.U. after    9 cycles
 SCF Done:  E(RB3LYP) =  -235.749725655     A.U. after   11 cycles
 SCF Done:  E(RB3LYP) =  -235.856349258     A.U. after   10 cycles
 SCF Done:  E(RB3LYP) =  -235.860436256     A.U. after    8 cycles
 SCF Done:  E(RB3LYP) =  -235.860510156     A.U. after    8 cycles
 SCF Done:  E(RB3LYP) =  -235.860553835     A.U. after    8 cycles
 SCF Done:  E(RB3LYP) =  -235.860558461     A.U. after    7 cycles
 SCF Done:  E(RB3LYP) =  -235.860564468     A.U. after    8 cycles
 SCF Done:  E(RB3LYP) =  -235.860568396     A.U. after    7 cycles
 SCF Done:  E(RB3LYP) =  -235.860568502     A.U. after    6 cycles
 Optimization completed.
    -- Stationary point found.
 Normal termination of Gaussian 09 at Tue Jan 26 12:17:55 2016.

 ------------------------------------------------------------------
 #P Geom=AllCheck Guess=TCheck SCRF=Check GenChk RB3LYP/ChkBas Freq
 ------------------------------------------------------------------

 Structure from the checkpoint file:  "1.chk"
 --------------------
 cyclohexane-boat.car
 --------------------
 Charge =  0 Multiplicity = 1

                         Standard orientation:
 ---------------------------------------------------------------------
 Center     Atomic      Atomic             Coordinates (Angstroms)
 Number     Number       Type             X           Y           Z
 ---------------------------------------------------------------------
      1          6           0        0.666298   -1.227492    0.382202
      2          6           0        1.528657    0.000855    0.000019
      3          6           0        0.664845    1.228199   -0.382210
      4          6           0       -0.666282    1.227557    0.382203
      5          6           0       -1.528641   -0.000861    0.000019
      6          6           0       -0.664852   -1.228248   -0.382223
      7          1           0        1.224209   -2.154499    0.193131
      8          1           0        0.454264   -1.213380    1.461580
      9          1           0        2.187932    0.256317    0.841356
     10          1           0        2.188201   -0.253879   -0.841337
     11          1           0        1.221639    2.155892   -0.193227
     12          1           0        0.452832    1.213754   -1.461592
     13          1           0       -0.454408    1.213569    1.461612
     14          1           0       -1.224159    2.154528    0.192918
     15          1           0       -2.187808   -0.256413    0.841401
     16          1           0       -2.188243    0.253909   -0.841277
     17          1           0       -0.452963   -1.213969   -1.461622
     18          1           0       -1.221650   -2.155889   -0.193005
 ---------------------------------------------------------------------

 SCF Done:  E(RB3LYP) =  -235.860568502     A.U. after    1 cycles

 The electronic state is 1-A.
 Alpha  occ. eigenvalues --  -10.16086 -10.16085 -10.16057 -10.16051 -10.16040
 Alpha  occ. eigenvalues --  -10.16039  -0.81062  -0.72159  -0.72037  -0.60105
 Alpha  occ. eigenvalues --   -0.59304  -0.51183  -0.46772  -0.46313  -0.41932
 Alpha  occ. eigenvalues --   -0.38814  -0.36256  -0.35484  -0.35057  -0.34381
 Alpha  occ. eigenvalues --   -0.33642  -0.28607  -0.28554  -0.28506
 Alpha virt. eigenvalues --    0.08800   0.11717   0.14067   0.15580   0.15896
 Alpha virt. eigenvalues --    0.16495   0.16650   0.18393   0.19334   0.19383
 Alpha virt. eigenvalues --    0.21916   0.22426   0.22933   0.25487   0.25974

 Mulliken charges:
               1
     1  C   -0.283496
     2  C   -0.280761
     3  C   -0.283500
     4  C   -0.283498
     5  C   -0.280776
     6  C   -0.283507
     7  H    0.140533
     8  H    0.142517
     9  H    0.140832
    10  H    0.140831
    11  H    0.140528
    12  H    0.142519
    13  H    0.142517
    14  H    0.140539
    15  H    0.140835
    16  H    0.140835
    17  H    0.142520
    18  H    0.140533
 Sum of Mulliken charges =   0.00000

 Dipole moment (field-independent basis, Debye):
    X=             -0.0001    Y=              0.0000    Z=              0.0000  Tot=              0.0001
 Quadrupole moment (field-independent basis, Debye-Ang):
   XX=            -40.1218   YY=            -39.8957   ZZ=            -39.1108
   XY=             -0.0006   XZ=              0.0000   YZ=             -0.0003

  Exact polarizability:  85.588  -0.001  85.306   0.000  -0.001  84.279
 Approx polarizability:  81.532  -0.001  81.346   0.000   0.000  83.866

                      1                      2                      3
                      A                      A                      A
 Frequencies --    127.9610               254.0165               279.9962
 Red. masses --      1.7223                 1.5126                 1.8295
 Frc consts  --      0.0166                 0.0575                 0.0845
 IR Inten    --      0.0641                 0.0897                 0.0000

                      4                      5                      6
                      A                      A                      A
 Frequencies --    431.9843               467.4243               558.7409
 Red. masses --      2.3157                 4.3581                 1.5987
 Frc consts  --      0.2546                 0.5610                 0.2941
 IR Inten    --      2.0586                 0.0000                 1.9431

                      7                      8                      9
                      A                      A                      A
 Frequencies --    774.4537               781.4838               811.6486
 Red. masses --      1.1597                 1.4209                 3.2845
 Frc consts  --      0.4098                 0.5113                 1.2749
 IR Inten    --      3.5241                 8.2170                 0.0000

                     10                     11                     12
                      A                      A                      A
 Frequencies --    868.5832               877.0891               907.6183
 Red. masses --      2.5567                 2.3225                 1.4006
 Frc consts  --      1.1364                 1.0527                 0.6798
 IR Inten    --      2.7790                 3.9468                 0.1818

                     13                     14                     15
                      A                      A                      A
 Frequencies --    945.5365              1016.1636              1030.0794
 Red. masses --      1.3884                 2.2736                 1.7944
 Frc consts  --      0.7314                 1.3832                 1.1218
 IR Inten    --      0.0000                 2.4680                 0.0000

                     16                     17                     18
                      A                      A                      A
 Frequencies --   1055.9208              1106.0844              1113.1584
 Red. masses --      1.7672                 3.0765                 1.0398
 Frc consts  --      1.1609                 2.2176                 0.7591
 IR Inten    --      0.3647                 0.0049                 0.0020

                     19                     20                     21
                      A                      A                      A
 Frequencies --   1146.5602              1177.8523              1259.5262
 Red. masses --      1.2000                 1.9162                 1.3175
 Frc consts  --      0.9295                 1.5663                 1.2314
 IR Inten    --      0.0889                 3.1794                 0.3844

                     22                     23                     24
                      A                      A                      A
 Frequencies --   1272.1963              1296.3068              1313.8600
 Red. masses --      1.2287                 1.2723                 1.0849
 Frc consts  --      1.1716                 1.2597                 1.1034
 IR Inten    --      0.0000                 0.0000                 0.9611

                     25                     26                     27
                      A                      A                      A
 Frequencies --   1346.5789              1366.7399              1379.1947
 Red. masses --      1.3636                 1.5392                 1.3078
 Frc consts  --      1.4569                 1.6940                 1.4657
 IR Inten    --      0.4526                 0.1496                 1.8062

                     28                     29                     30
                      A                      A                      A
 Frequencies --   1389.1607              1392.5412              1393.8583
 Red. masses --      1.3955                 1.4229                 1.4693
 Frc consts  --      1.5866                 1.6258                 1.6819
 IR Inten    --      4.5096                 2.4449                 0.0002

                     31                     32                     33
                      A                      A                      A
 Frequencies --   1496.0755              1498.6220              1505.3798
 Red. masses --      1.0782                 1.0765                 1.0788
 Frc consts  --      1.4219                 1.4245                 1.4403
 IR Inten    --      0.0046                 0.0000                 5.2667

                     34                     35                     36
                      A                      A                      A
 Frequencies --   1506.2860              1511.2627              1524.1795
 Red. masses --      1.0954                 1.1044                 1.1035
 Frc consts  --      1.4644                 1.4861                 1.5104
 IR Inten    --      1.0106                 1.4234                 0.0000

                     37                     38                     39
                      A                      A                      A
 Frequencies --   3021.4716              3025.9520              3027.3466
 Red. masses --      1.0709                 1.0604                 1.0624
 Frc consts  --      5.7601                 5.7208                 5.7367
 IR Inten    --     46.2848                16.3062                 0.0056

                     40                     41                     42
                      A                      A                      A
 Frequencies --   3031.8702              3039.3103              3041.2477
 Red. masses --      1.0619                 1.0635                 1.0712
 Frc consts  --      5.7512                 5.7879                 5.8375
 IR Inten    --    129.3494               130.1955                 0.0244

                     43                     44                     45
                      A                      A                      A
 Frequencies --   3060.6012              3061.8190              3071.5453
 Red. masses --      1.1029                 1.0943                 1.1029
 Frc consts  --      6.0871                 6.0442                 6.1307
 IR Inten    --     10.6953                96.8925               117.0568

                     46                     47                     48
                      A                      A                      A
 Frequencies --   3075.7528              3081.3673              3085.3381
 Red. masses --      1.0928                 1.1035                 1.1054
 Frc consts  --      6.0912                 6.1734                 6.1997
 IR Inten    --      0.0048               122.0073               298.5176

 - Thermochemistry -
 -------------------
 Temperature   298.150 Kelvin.  Pressure   1.00000 Atm.
 Atom     1 has atomic number  6 and mass  12.00000

 Molecular mass:    84.09390 amu.
 Principal axes and moments of inertia in atomic units:
                           1         2         3
     Eigenvalues --   413.96406 436.14112 717.06245
           X            1.00000  -0.00001   0.00000
           Y            0.00001   1.00000   0.00000
           Z            0.00000   0.00000   1.00000
 This molecule is an asymmetric top.
 Rotational symmetry number  1.
 Rotational temperatures (Kelvin)      0.20923     0.19859     0.12079
 Rotational constants (GHZ):           4.35966     4.13798     2.51685
 Zero-point vibrational energy     447449.7 (Joules/Mol)
                                  106.94304 (Kcal/Mol)
 Warning -- explicit consideration of   6 degrees of freedom as
           vibrations may cause significant error
 Vibrational temperatures:    184.11   365.47   402.85   621.53   672.52
          (Kelvin)            803.90  1114.26  1124.38  1167.78  1249.70
                             1261.93  1305.86  1360.41  1462.03  1482.05
                             1519.23  1591.41  1601.58  1649.64  1694.66
                             1812.18  1830.40  1865.09  1890.35  1937.42
                             1966.43  1984.35  1998.69  2003.55  2005.45
                             2152.52  2156.18  2165.90  2167.21  2174.37
                             2192.95  4347.22  4353.66  4355.67  4362.18
                             4372.88  4375.67  4403.52  4405.27  4419.26
                             4425.32  4433.39  4439.11

 Zero-point correction=                           0.170425 (Hartree/Particle)
 Thermal correction to Energy=                    0.176351
 Thermal correction to Enthalpy=                  0.177296
 Thermal correction to Gibbs Free Energy=         0.141243
 Sum of electronic and zero-point Energies=           -235.690144
 Sum of electronic and thermal Energies=              -235.684217
 Sum of electronic and thermal Enthalpies=            -235.683273
 Sum of electronic and thermal Free Energies=         -235.719325

                     E (Thermal)             CV                S
                      KCal/Mol        Cal/Mol-Kelvin    Cal/Mol-Kelvin
 Total                  110.662             22.991             75.879
 Electronic               0.000              0.000              0.000
 Translational            0.889              2.981             39.202
 Rotational               0.889              2.981             26.362
 Vibrational            108.885             17.029             10.315
 Vibration     1          0.611              1.925              2.976
 Vibration     2          0.665              1.756              1.703
 Vibration     3          0.680              1.711              1.534
 Vibration     4          0.793              1.401              0.852
 Vibration     5          0.825              1.322              0.745
 Vibration     6          0.914              1.121              0.526

 Optimization completed.
    -- Stationary point found.
 Normal termination of Gaussian 09 at Tue Jan 26 12:18:46 2016.
