 Gaussian 09, Revision D.01,
 Gaussian 09:  ES64L-G09RevD.01 24-Apr-2013

 -------------------------------------------------------------
 #P b3lyp/gen opt freq gfinput scf=(xqc,maxcon=128,maxcyc=128)
 -------------------------------------------------------------

 -------------------------
 n_butyl_cyclohexane_2.car
 -------------------------
 Symbolic Z-matrix:
 Charge =  0 Multiplicity = 1

 SCF Done:  E(RB3LYP) =  -393.121299014     A.U. after   12 cycles
 SCF Done:  E(RB3LYP) =  -393.123057640     A.U. after   10 cycles
 SCF Done:  E(RB3LYP) =  -393.123215989     A.U. after    9 cycles
 SCF Done:  E(RB3LYP) =  -393.123227391     A.U. after    9 cycles
 SCF Done:  E(RB3LYP) =  -393.123229091     A.U. after    8 cycles
 SCF Done:  E(RB3LYP) =  -393.123229876     A.U. after    7 cycles
 SCF Done:  E(RB3LYP) =  -393.123229938     A.U. after    6 cycles
 Optimization completed.
    -- Stationary point found.
 Normal termination of Gaussian 09 at Thu Jul 21 12:03:06 2016.

 ------------------------------------------------------------------
 #P Geom=AllCheck Guess=TCheck SCRF=Check GenChk RB3LYP/ChkBas Freq
 ------------------------------------------------------------------

 Structure from the checkpoint file:  "1.chk"
 -------------------------
 n_butyl_cyclohexane_2.car
 -------------------------
 Charge =  0 Multiplicity = 1

                         Standard orientation:
 ---------------------------------------------------------------------
 Center     Atomic      Atomic             Coordinates (Angstroms)
 Number     Number       Type             X           Y           Z
 ---------------------------------------------------------------------
      1          6           0       -0.494416   -0.287261    0.223857
      2          6           0        0.896308   -0.729761   -0.270118
      3          6           0        2.069247    0.144968    0.197552
      4          6           0        3.437717   -0.389249   -0.249242
      5          6           0        4.609852    0.481594    0.218343
      6          6           0       -0.927567    1.081668   -0.340355
      7          6           0       -2.330231    1.493157    0.138034
      8          6           0       -3.379323    0.419404   -0.188359
      9          6           0       -2.964155   -0.948167    0.375705
     10          6           0       -1.560936   -1.352082   -0.104209
     11          1           0        1.073312   -1.763017    0.068501
     12          1           0        2.051675    0.219545    1.296881
     13          1           0        1.948558    1.172167   -0.177104
     14          1           0        3.568540   -1.414418    0.129817
     15          1           0        5.572445    0.072696   -0.114785
     16          1           0        4.639922    0.552699    1.314199
     17          1           0        4.528247    1.503861   -0.175476
     18          1           0        3.455048   -0.469144   -1.346967
     19          1           0        0.889841   -0.772639   -1.371608
     20          1           0       -0.446628   -0.194779    1.323474
     21          1           0       -0.920929    1.028467   -1.441978
     22          1           0       -0.201842    1.858451   -0.064136
     23          1           0       -2.614163    2.454743   -0.312501
     24          1           0       -2.306540    1.655936    1.227358
     25          1           0       -3.490228    0.341921   -1.281770
     26          1           0       -4.362940    0.713308    0.204391
     27          1           0       -3.696644   -1.717410    0.092877
     28          1           0       -2.971079   -0.902078    1.476399
     29          1           0       -1.582904   -1.510017   -1.195238
     30          1           0       -1.272659   -2.315912    0.340420
 ---------------------------------------------------------------------

 SCF Done:  E(RB3LYP) =  -393.123229938     A.U. after    1 cycles

 The electronic state is 1-A.
 Alpha  occ. eigenvalues --  -10.17359 -10.16995 -10.16753 -10.16733 -10.16728
 Alpha  occ. eigenvalues --  -10.16711 -10.16610 -10.16583 -10.16575 -10.16265
 Alpha  occ. eigenvalues --   -0.82623  -0.78787  -0.74922  -0.73065  -0.69615
 Alpha  occ. eigenvalues --   -0.62926  -0.60095  -0.57829  -0.56368  -0.54330
 Alpha  occ. eigenvalues --   -0.46791  -0.46241  -0.43461  -0.43080  -0.42835
 Alpha  occ. eigenvalues --   -0.41590  -0.39988  -0.38516  -0.37174  -0.36810
 Alpha  occ. eigenvalues --   -0.35552  -0.34198  -0.33426  -0.32714  -0.32453
 Alpha  occ. eigenvalues --   -0.32156  -0.31555  -0.30737  -0.28651  -0.28171
 Alpha virt. eigenvalues --    0.08881   0.09877   0.10506   0.11776   0.12375
 Alpha virt. eigenvalues --    0.13857   0.14503   0.15678   0.16518   0.16752
 Alpha virt. eigenvalues --    0.17350   0.17740   0.18000   0.18296   0.18675

 Mulliken charges:
               1
     1  C   -0.064906
     2  C   -0.268730
     3  C   -0.265891
     4  C   -0.255504
     5  C   -0.470105
     6  C   -0.276735
     7  C   -0.271954
     8  C   -0.266333
     9  C   -0.271431
    10  C   -0.274136
    11  H    0.129268
    12  H    0.130825
    13  H    0.137499
    14  H    0.135189
    15  H    0.150170
    16  H    0.149256
    17  H    0.149234
    18  H    0.135625
    19  H    0.129049
    20  H    0.112824
    21  H    0.128218
    22  H    0.137795
    23  H    0.134718
    24  H    0.132113
    25  H    0.131884
    26  H    0.134562
    27  H    0.134803
    28  H    0.131713
    29  H    0.129184
    30  H    0.131797
 Sum of Mulliken charges =   0.00000

 Dipole moment (field-independent basis, Debye):
    X=             -0.0330    Y=             -0.0047    Z=              0.0200  Tot=              0.0389
 Quadrupole moment (field-independent basis, Debye-Ang):
   XX=            -67.4294   YY=            -66.6374   ZZ=            -65.6797
   XY=             -0.2466   XZ=             -0.0214   YZ=             -0.3429

  Exact polarizability: 126.236   0.028  98.945  -0.173  -0.040  90.681
 Approx polarizability: 141.357  -0.598 139.827   0.182  -0.285 143.515

                      1                      2                      3
                      A                      A                      A
 Frequencies --     56.2348                70.0219                94.0483
 Red. masses --      2.1563                 1.9536                 3.0103
 Frc consts  --      0.0040                 0.0056                 0.0157
 IR Inten    --      0.0019                 0.0023                 0.0035

                      4                      5                      6
                      A                      A                      A
 Frequencies --    132.0343               178.4965               233.1318
 Red. masses --      2.3911                 2.0682                 1.7423
 Frc consts  --      0.0246                 0.0388                 0.0558
 IR Inten    --      0.0096                 0.0059                 0.0177

                      7                      8                      9
                      A                      A                      A
 Frequencies --    246.4474               259.5788               278.1127
 Red. masses --      1.1933                 2.7414                 3.3951
 Frc consts  --      0.0427                 0.1088                 0.1547
 IR Inten    --      0.0017                 0.0215                 0.0512

                     10                     11                     12
                      A                      A                      A
 Frequencies --    330.8522               412.2123               448.8625
 Red. masses --      1.7271                 2.1549                 2.7465
 Frc consts  --      0.1114                 0.2157                 0.3260
 IR Inten    --      0.0051                 0.1094                 0.0216

                     13                     14                     15
                      A                      A                      A
 Frequencies --    464.3880               468.6797               565.6733
 Red. masses --      2.9979                 2.0292                 1.8290
 Frc consts  --      0.3809                 0.2626                 0.3448
 IR Inten    --      0.0081                 0.3375                 0.2784

                     16                     17                     18
                      A                      A                      A
 Frequencies --    737.3471               776.7893               798.0967
 Red. masses --      1.0973                 1.6617                 1.4553
 Frc consts  --      0.3515                 0.5908                 0.5462
 IR Inten    --      2.9131                 0.2529                 0.0072

                     19                     20                     21
                      A                      A                      A
 Frequencies --    805.2752               855.8185               880.0053
 Red. masses --      1.5839                 2.1744                 1.5592
 Frc consts  --      0.6052                 0.9383                 0.7114
 IR Inten    --      0.0207                 1.3293                 0.3409

                     22                     23                     24
                      A                      A                      A
 Frequencies --    897.6312               915.4292               931.4468
 Red. masses --      2.0215                 1.6224                 1.5362
 Frc consts  --      0.9597                 0.8011                 0.7853
 IR Inten    --      1.7486                 2.7173                 0.9060

                     25                     26                     27
                      A                      A                      A
 Frequencies --    949.1453               973.5732              1028.5257
 Red. masses --      1.3637                 2.4445                 2.7873
 Frc consts  --      0.7238                 1.3651                 1.7373
 IR Inten    --      1.6229                 1.2522                 0.5990

                     28                     29                     30
                      A                      A                      A
 Frequencies --   1047.3707              1051.5885              1070.7354
 Red. masses --      1.7937                 1.5733                 2.2251
 Frc consts  --      1.1593                 1.0251                 1.5030
 IR Inten    --      0.2347                 0.0298                 0.1381

                     31                     32                     33
                      A                      A                      A
 Frequencies --   1073.3925              1095.9457              1104.7289
 Red. masses --      1.4028                 1.1758                 2.1593
 Frc consts  --      0.9523                 0.8321                 1.5527
 IR Inten    --      0.5485                 1.5874                 0.2406

                     34                     35                     36
                      A                      A                      A
 Frequencies --   1121.1286              1139.2812              1193.6589
 Red. masses --      2.1833                 1.9167                 2.2254
 Frc consts  --      1.6169                 1.4658                 1.8682
 IR Inten    --      0.6117                 0.6514                 0.1776

                     37                     38                     39
                      A                      A                      A
 Frequencies --   1215.8282              1245.6431              1282.4553
 Red. masses --      1.5655                 1.4849                 1.2801
 Frc consts  --      1.3634                 1.3575                 1.2405
 IR Inten    --      1.1302                 2.4852                 1.3464

                     40                     41                     42
                      A                      A                      A
 Frequencies --   1295.7654              1301.7886              1302.7178
 Red. masses --      1.2867                 1.2646                 1.2400
 Frc consts  --      1.2729                 1.2627                 1.2398
 IR Inten    --      1.5540                 1.3536                 3.3797

                     43                     44                     45
                      A                      A                      A
 Frequencies --   1330.0107              1338.5916              1346.6961
 Red. masses --      1.2274                 1.2266                 1.1268
 Frc consts  --      1.2793                 1.2949                 1.2040
 IR Inten    --      0.3247                 0.1275                 0.3927

                     46                     47                     48
                      A                      A                      A
 Frequencies --   1358.7599              1378.8608              1387.6868
 Red. masses --      1.2070                 1.3770                 1.3842
 Frc consts  --      1.3130                 1.5424                 1.5704
 IR Inten    --      0.3084                 1.1836                 1.8669

                     49                     50                     51
                      A                      A                      A
 Frequencies --   1395.5917              1398.8177              1402.3742
 Red. masses --      1.4299                 1.5241                 1.4918
 Frc consts  --      1.6408                 1.7570                 1.7286
 IR Inten    --      0.3175                 2.8714                 1.7078

                     52                     53                     54
                      A                      A                      A
 Frequencies --   1415.6250              1421.8314              1432.4952
 Red. masses --      1.5365                 1.6210                 1.2596
 Frc consts  --      1.8142                 1.9308                 1.5229
 IR Inten    --      0.0979                 2.0581                 1.3142

                     55                     56                     57
                      A                      A                      A
 Frequencies --   1500.8214              1506.7887              1508.0637
 Red. masses --      1.0842                 1.0898                 1.0859
 Frc consts  --      1.4388                 1.4578                 1.4551
 IR Inten    --      0.0457                 0.5914                 0.5192

                     58                     59                     60
                      A                      A                      A
 Frequencies --   1509.9300              1510.9601              1514.4249
 Red. masses --      1.0721                 1.0932                 1.0819
 Frc consts  --      1.4402                 1.4705                 1.4619
 IR Inten    --      1.5472                 1.7411                 8.3606

                     61                     62                     63
                      A                      A                      A
 Frequencies --   1522.9819              1523.5977              1529.2216
 Red. masses --      1.0759                 1.0410                 1.0980
 Frc consts  --      1.4703                 1.4238                 1.5129
 IR Inten    --      0.5581                 5.6099                 0.4296

                     64                     65                     66
                      A                      A                      A
 Frequencies --   1535.4767              2981.7556              3003.4685
 Red. masses --      1.0867                 1.0811                 1.0605
 Frc consts  --      1.5095                 5.6633                 5.6366
 IR Inten    --      3.6475                 6.5558                 3.0083

                     67                     68                     69
                      A                      A                      A
 Frequencies --   3005.7374              3012.5884              3014.5886
 Red. masses --      1.0675                 1.0640                 1.0652
 Frc consts  --      5.6824                 5.6896                 5.7034
 IR Inten    --     16.2868                 1.5357                28.8500

                     70                     71                     72
                      A                      A                      A
 Frequencies --   3015.8878              3017.3011              3020.8436
 Red. masses --      1.0700                 1.0636                 1.0603
 Frc consts  --      5.7341                 5.7049                 5.7010
 IR Inten    --     23.1241                12.7655                48.1144

                     73                     74                     75
                      A                      A                      A
 Frequencies --   3024.2192              3034.4992              3035.7764
 Red. masses --      1.0623                 1.0624                 1.0691
 Frc consts  --      5.7245                 5.7637                 5.8053
 IR Inten    --     78.0279                20.5750                26.2267

                     76                     77                     78
                      A                      A                      A
 Frequencies --   3046.3738              3058.2742              3064.8178
 Red. masses --      1.1019                 1.0977                 1.0974
 Frc consts  --      6.0251                 6.0488                 6.0734
 IR Inten    --      0.1199                46.3619                64.9628

                     79                     80                     81
                      A                      A                      A
 Frequencies --   3064.9629              3068.3065              3072.7940
 Red. masses --      1.0962                 1.1016                 1.1037
 Frc consts  --      6.0674                 6.1105                 6.1399
 IR Inten    --     50.2891                20.9376               144.2698

                     82                     83                     84
                      A                      A                      A
 Frequencies --   3076.6860              3103.4901              3107.6390
 Red. masses --      1.0975                 1.1030                 1.1022
 Frc consts  --      6.1208                 6.2594                 6.2714
 IR Inten    --     59.4044                68.2292                44.5088

 - Thermochemistry -
 -------------------
 Temperature   298.150 Kelvin.  Pressure   1.00000 Atm.
 Atom     1 has atomic number  6 and mass  12.00000

 Molecular mass:   140.15650 amu.
 Principal axes and moments of inertia in atomic units:
                           1         2         3
     Eigenvalues --   531.146633618.862863969.11878
           X            1.00000   0.00214   0.00072
           Y           -0.00214   0.99998   0.00564
           Z           -0.00071  -0.00564   0.99998
 This molecule is an asymmetric top.
 Rotational symmetry number  1.
 Warning -- assumption of classical behavior for rotation
           may cause significant error
 Rotational temperatures (Kelvin)      0.16307     0.02393     0.02182
 Rotational constants (GHZ):           3.39782     0.49870     0.45470
 Zero-point vibrational energy     747244.4 (Joules/Mol)
                                  178.59569 (Kcal/Mol)
 Warning -- explicit consideration of  15 degrees of freedom as
           vibrations may cause significant error
 Vibrational temperatures:     80.91   100.75   135.31   189.97   256.82
          (Kelvin)            335.42   354.58   373.48   400.14   476.02
                              593.08   645.81   668.15   674.32   813.88
                             1060.88  1117.63  1148.28  1158.61  1231.33
                             1266.13  1291.49  1317.10  1340.14  1365.61
                             1400.75  1479.82  1506.93  1513.00  1540.55
                             1544.37  1576.82  1589.46  1613.05  1639.17
                             1717.41  1749.30  1792.20  1845.16  1864.32
                             1872.98  1874.32  1913.59  1925.93  1937.59
                             1954.95  1983.87  1996.57  2007.94  2012.58
                             2017.70  2036.77  2045.70  2061.04  2159.34
                             2167.93  2169.76  2172.45  2173.93  2178.92
                             2191.23  2192.11  2200.21  2209.21  4290.08
                             4321.32  4324.58  4334.44  4337.32  4339.18
                             4341.22  4346.31  4351.17  4365.96  4367.80
                             4383.05  4400.17  4409.58  4409.79  4414.60
                             4421.06  4426.66  4465.22  4471.19

 Zero-point correction=                           0.284610 (Hartree/Particle)
 Thermal correction to Energy=                    0.295803
 Thermal correction to Enthalpy=                  0.296747
 Thermal correction to Gibbs Free Energy=         0.247558
 Sum of electronic and zero-point Energies=           -392.838620
 Sum of electronic and thermal Energies=              -392.827427
 Sum of electronic and thermal Enthalpies=            -392.826483
 Sum of electronic and thermal Free Energies=         -392.875672

                     E (Thermal)             CV                S
                      KCal/Mol        Cal/Mol-Kelvin    Cal/Mol-Kelvin
 Total                  185.619             42.884            103.527
 Electronic               0.000              0.000              0.000
 Translational            0.889              2.981             40.724
 Rotational               0.889              2.981             30.413
 Vibrational            183.841             36.923             32.390
 Vibration     1          0.596              1.975              4.585
 Vibration     2          0.598              1.968              4.153
 Vibration     3          0.603              1.953              3.574
 Vibration     4          0.612              1.921              2.916
 Vibration     5          0.629              1.869              2.344
 Vibration     6          0.654              1.790              1.855
 Vibration     7          0.661              1.769              1.756
 Vibration     8          0.668              1.747              1.665
 Vibration     9          0.679              1.714              1.545
 Vibration    10          0.713              1.614              1.256
 Vibration    11          0.776              1.444              0.919
 Vibration    12          0.808              1.363              0.799
 Vibration    13          0.822              1.329              0.753
 Vibration    14          0.826              1.320              0.741
 Vibration    15          0.922              1.106              0.513

 Optimization completed.
    -- Stationary point found.
 Normal termination of Gaussian 09 at Thu Jul 21 12:05:04 2016.
