 Gaussian 09, Revision D.01,
 Gaussian 09:  ES64L-G09RevD.01 24-Apr-2013

 -------------------------------------------------------------
 #P b3lyp/gen opt freq gfinput scf=(xqc,maxcon=128,maxcyc=128)
 -------------------------------------------------------------

 -----------
 ethanol.car
 -----------
 Symbolic Z-matrix:
 Charge =  0 Multiplicity = 1

 SCF Done:  E(RB3LYP) =  -154.893377202     A.U. after   12 cycles
 SCF Done:  E(RB3LYP) =  -154.984953170     A.U. after   12 cycles
 SCF Done:  E(RB3LYP) =  -155.027381852     A.U. after   13 cycles
 SCF Done:  E(RB3LYP) =  -155.027931715     A.U. after   11 cycles
 SCF Done:  E(RB3LYP) =  -155.027960504     A.U. after    8 cycles
 SCF Done:  E(RB3LYP) =  -155.027967082     A.U. after    7 cycles
 Optimization completed.
    -- Stationary point found.
 Normal termination of Gaussian 09 at Tue Apr 11 13:54:34 2017.

 ------------------------------------------------------------------
 #P Geom=AllCheck Guess=TCheck SCRF=Check GenChk RB3LYP/ChkBas Freq
 ------------------------------------------------------------------

 Structure from the checkpoint file:  "1.chk"
 -----------
 ethanol.car
 -----------
 Charge =  0 Multiplicity = 1

                         Standard orientation:
 ---------------------------------------------------------------------
 Center     Atomic      Atomic             Coordinates (Angstroms)
 Number     Number       Type             X           Y           Z
 ---------------------------------------------------------------------
      1          6           0       -1.223017   -0.221586    0.000000
      2          6           0        0.088550    0.548373    0.000000
      3          1           0       -1.289527   -0.861217   -0.887924
      4          1           0       -1.289527   -0.861217    0.887924
      5          1           0       -2.076208    0.468084    0.000000
      6          1           0        0.140923    1.202137    0.888972
      7          8           0        1.149179   -0.399159    0.000000
      8          1           0        0.140923    1.202137   -0.888971
      9          1           0        1.986786    0.082629    0.000000
 ---------------------------------------------------------------------

 SCF Done:  E(RB3LYP) =  -155.027967082     A.U. after    1 cycles

 The electronic state is 1-A.
 Alpha  occ. eigenvalues --  -19.13001 -10.22137 -10.16423  -1.01110  -0.74254
 Alpha  occ. eigenvalues --   -0.60533  -0.51154  -0.45838  -0.39366  -0.37833
 Alpha  occ. eigenvalues --   -0.35986  -0.32363  -0.26143
 Alpha virt. eigenvalues --    0.07722   0.12009   0.15761   0.16228   0.17640
 Alpha virt. eigenvalues --    0.19959   0.21637   0.24157   0.52435   0.55587
 Alpha virt. eigenvalues --    0.57329   0.58384   0.65768   0.67752   0.80478

 Mulliken charges:
               1
     1  C   -0.461866
     2  C   -0.104521
     3  H    0.166263
     4  H    0.166263
     5  H    0.148428
     6  H    0.128456
     7  O   -0.541613
     8  H    0.128456
     9  H    0.370133
 Sum of Mulliken charges =   0.00000

 Dipole moment (field-independent basis, Debye):
    X=              0.3230    Y=              1.5691    Z=              0.0000  Tot=              1.6019
 Quadrupole moment (field-independent basis, Debye-Ang):
   XX=            -16.5757   YY=            -20.4614   ZZ=            -19.8857
   XY=              1.9124   XZ=              0.0000   YZ=              0.0000

  Exact polarizability:  29.674   0.386  25.647   0.000   0.000  23.479
 Approx polarizability:  35.258  -0.850  33.874   0.000   0.000  30.550

                      1                      2                      3
                      A                      A                      A
 Frequencies --    248.6971               319.3350               414.9975
 Red. masses --      1.1465                 1.0746                 2.6310
 Frc consts  --      0.0418                 0.0646                 0.2670
 IR Inten    --     17.7588               124.6347                11.9491

                      4                      5                      6
                      A                      A                      A
 Frequencies --    825.1110               910.2357              1043.0038
 Red. masses --      1.0807                 2.1667                 2.0877
 Frc consts  --      0.4335                 1.0577                 1.3381
 IR Inten    --      0.0134                 9.7408                53.2217

                      7                      8                      9
                      A                      A                      A
 Frequencies --   1120.9035              1189.3932              1287.8654
 Red. masses --      2.3310                 1.5103                 1.2556
 Frc consts  --      1.7256                 1.2589                 1.2270
 IR Inten    --     25.9581                 5.0947                89.4934

                     10                     11                     12
                      A                      A                      A
 Frequencies --   1308.5264              1417.3841              1478.4606
 Red. masses --      1.1146                 1.2344                 1.4671
 Frc consts  --      1.1245                 1.4611                 1.8894
 IR Inten    --      0.0447                 0.8346                13.9152

                     13                     14                     15
                      A                      A                      A
 Frequencies --   1506.8005              1524.3444              1551.7088
 Red. masses --      1.0399                 1.0457                 1.0899
 Frc consts  --      1.3911                 1.4316                 1.5462
 IR Inten    --      4.2241                 2.9643                 2.2483

                     16                     17                     18
                      A                      A                      A
 Frequencies --   2974.0824              2999.9194              3052.8511
 Red. masses --      1.0555                 1.1083                 1.0353
 Frc consts  --      5.5006                 5.8767                 5.6851
 IR Inten    --     73.7026                77.8942                15.5112

                     19                     20                     21
                      A                      A                      A
 Frequencies --   3128.0424              3132.8669              3739.6450
 Red. masses --      1.1028                 1.1039                 1.0663
 Frc consts  --      6.3574                 6.3834                 8.7861
 IR Inten    --     30.1651                32.9315                 5.3386

 - Thermochemistry -
 -------------------
 Temperature   298.150 Kelvin.  Pressure   1.00000 Atm.
 Atom     1 has atomic number  6 and mass  12.00000

 Molecular mass:    46.04186 amu.
 Principal axes and moments of inertia in atomic units:
                           1         2         3
     Eigenvalues --    51.63945 192.88259 221.79532
           X            0.99910   0.04235   0.00000
           Y           -0.04235   0.99910   0.00000
           Z            0.00000   0.00000   1.00000
 This molecule is an asymmetric top.
 Rotational symmetry number  1.
 Rotational temperatures (Kelvin)      1.67728     0.44905     0.39051
 Rotational constants (GHZ):          34.94888     9.35668     8.13697
 Zero-point vibrational energy     210388.3 (Joules/Mol)
                                   50.28401 (Kcal/Mol)
 Warning -- explicit consideration of   3 degrees of freedom as
           vibrations may cause significant error
 Vibrational temperatures:    357.82   459.45   597.09  1187.15  1309.62
          (Kelvin)           1500.65  1612.73  1711.27  1852.95  1882.68
                             2039.30  2127.17  2167.95  2193.19  2232.56
                             4279.04  4316.21  4392.37  4500.55  4507.49
                             5380.51

 Zero-point correction=                           0.080133 (Hartree/Particle)
 Thermal correction to Energy=                    0.084388
 Thermal correction to Enthalpy=                  0.085332
 Thermal correction to Gibbs Free Energy=         0.054780
 Sum of electronic and zero-point Energies=           -154.947834
 Sum of electronic and thermal Energies=              -154.943579
 Sum of electronic and thermal Enthalpies=            -154.942635
 Sum of electronic and thermal Free Energies=         -154.973187

                     E (Thermal)             CV                S
                      KCal/Mol        Cal/Mol-Kelvin    Cal/Mol-Kelvin
 Total                   52.954             13.388             64.303
 Electronic               0.000              0.000              0.000
 Translational            0.889              2.981             37.406
 Rotational               0.889              2.981             22.318
 Vibrational             51.177              7.426              4.580
 Vibration     1          0.662              1.765              1.740
 Vibration     2          0.705              1.637              1.314
 Vibration     3          0.778              1.438              0.909

 Optimization completed.
    -- Stationary point found.
 Normal termination of Gaussian 09 at Tue Apr 11 13:57:50 2017.
