 Gaussian 09, Revision D.01,
 Gaussian 09:  ES64L-G09RevD.01 24-Apr-2013

 -------------------------------------------------------------
 #P b3lyp/gen opt freq gfinput scf=(xqc,maxcon=128,maxcyc=128)
 -------------------------------------------------------------

 -----------
 methane.car
 -----------
 Symbolic Z-matrix:
 Charge =  0 Multiplicity = 1

 SCF Done:  E(RB3LYP) =  -40.4469644894     A.U. after   10 cycles
 SCF Done:  E(RB3LYP) =  -40.5046492623     A.U. after   10 cycles
 SCF Done:  E(RB3LYP) =  -40.5168461157     A.U. after    8 cycles
 SCF Done:  E(RB3LYP) =  -40.5168696817     A.U. after    6 cycles
 Optimization completed.
    -- Stationary point found.
 Normal termination of Gaussian 09 at Mon Apr 10 14:28:24 2017.

 ------------------------------------------------------------------
 #P Geom=AllCheck Guess=TCheck SCRF=Check GenChk RB3LYP/ChkBas Freq
 ------------------------------------------------------------------

 Structure from the checkpoint file:  "1.chk"
 -----------
 methane.car
 -----------
 Charge =  0 Multiplicity = 1

                         Standard orientation:
 ---------------------------------------------------------------------
 Center     Atomic      Atomic             Coordinates (Angstroms)
 Number     Number       Type             X           Y           Z
 ---------------------------------------------------------------------
      1          6           0        0.000000    0.000000    0.000000
      2          1           0        0.632092    0.632092    0.632092
      3          1           0       -0.632092   -0.632092    0.632092
      4          1           0       -0.632092    0.632092   -0.632092
      5          1           0        0.632092   -0.632092   -0.632092
 ---------------------------------------------------------------------

 SCF Done:  E(RB3LYP) =  -40.5168696817     A.U. after    1 cycles

 The electronic state is 1-A1.
 Alpha  occ. eigenvalues --  -10.15877  -0.68961  -0.38855  -0.38855  -0.38855
 Alpha virt. eigenvalues --    0.11795   0.17655   0.17655   0.17655   0.53081
 Alpha virt. eigenvalues --    0.53081   0.53081   0.87191   0.87191   0.87191
 Alpha virt. eigenvalues --    0.94570   1.11113   1.26511   1.26511   1.98454

 Mulliken charges:
               1
     1  C   -0.669914
     2  H    0.167478
     3  H    0.167478
     4  H    0.167478
     5  H    0.167478
 Sum of Mulliken charges =   0.00000

 Dipole moment (field-independent basis, Debye):
    X=              0.0000    Y=              0.0000    Z=              0.0000  Tot=              0.0000
 Quadrupole moment (field-independent basis, Debye-Ang):
   XX=             -8.2450   YY=             -8.2450   ZZ=             -8.2450
   XY=              0.0000   XZ=              0.0000   YZ=              0.0000

  Exact polarizability:  12.525   0.000  12.525   0.000   0.000  12.525
 Approx polarizability:  15.014   0.000  15.014   0.000   0.000  15.014

                      1                      2                      3
                     T2                     T2                     T2
 Frequencies --   1361.2515              1361.2515              1361.2515
 Red. masses --      1.1780                 1.1780                 1.1780
 Frc consts  --      1.2861                 1.2861                 1.2861
 IR Inten    --     14.3209                14.3209                14.3209

                      4                      5                      6
                      E                      E                     A1
 Frequencies --   1589.6392              1589.6392              3044.8017
 Red. masses --      1.0078                 1.0078                 1.0078
 Frc consts  --      1.5005                 1.5005                 5.5049
 IR Inten    --      0.0000                 0.0000                 0.0000

                      7                      8                      9
                     T2                     T2                     T2
 Frequencies --   3160.6027              3160.6027              3160.6027
 Red. masses --      1.1025                 1.1025                 1.1025
 Frc consts  --      6.4887                 6.4887                 6.4887
 IR Inten    --     24.2113                24.2113                24.2113

 - Thermochemistry -
 -------------------
 Temperature   298.150 Kelvin.  Pressure   1.00000 Atm.
 Atom     1 has atomic number  6 and mass  12.00000

 Molecular mass:    16.03130 amu.
 Principal axes and moments of inertia in atomic units:
                           1         2         3
     Eigenvalues --    11.50360  11.50360  11.50360
           X            0.62835   0.77786   0.01061
           Y            0.76928  -0.61927  -0.15721
           Z            0.11572  -0.10694   0.98751
 This molecule is a spherical top.
 Rotational symmetry number 12.
 Rotational temperatures (Kelvin)      7.52928     7.52928     7.52928
 Rotational constants (GHZ):         156.88496   156.88496   156.88496
 Zero-point vibrational energy     118368.3 (Joules/Mol)
                                   28.29071 (Kcal/Mol)
 Vibrational temperatures:   1958.53  1958.53  1958.53  2287.13  2287.13
          (Kelvin)           4380.78  4547.40  4547.40  4547.40

 Zero-point correction=                           0.045084 (Hartree/Particle)
 Thermal correction to Energy=                    0.047950
 Thermal correction to Enthalpy=                  0.048894
 Thermal correction to Gibbs Free Energy=         0.027757
 Sum of electronic and zero-point Energies=            -40.471786
 Sum of electronic and thermal Energies=               -40.468920
 Sum of electronic and thermal Enthalpies=             -40.467976
 Sum of electronic and thermal Free Energies=          -40.489113

                     E (Thermal)             CV                S
                      KCal/Mol        Cal/Mol-Kelvin    Cal/Mol-Kelvin
 Total                   30.089              6.433             44.487
 Electronic               0.000              0.000              0.000
 Translational            0.889              2.981             34.261
 Rotational               0.889              2.981             10.146
 Vibrational             28.311              0.472              0.080

 Optimization completed.
    -- Stationary point found.
 Normal termination of Gaussian 09 at Mon Apr 10 14:29:22 2017.
